<?xml version="1.0" encoding="UTF-8"?>

<!-- generated on 12/10/15 19:12:30 by SUMO Version 0.23.0
<?xml version="1.0" encoding="UTF-8"?>

<configuration xmlns:xsi="http://www.w3.org/2001/XMLSchema-instance" xsi:noNamespaceSchemaLocation="http://sumo.dlr.de/xsd/sumoConfiguration.xsd">

    <input>
        <net-file value="map.net.xml"/>
        <route-files value="map.rou.xml"/>
        <additional-files value="map.poly.xml"/>
    </input>

    <output>
        <fcd-output value="carData"/>
    </output>

    <time>
        <begin value="0"/>
        <end value="1000"/>
    </time>

</configuration>
-->

<fcd-export xmlns:xsi="http://www.w3.org/2001/XMLSchema-instance" xsi:noNamespaceSchemaLocation="http://sumo.dlr.de/xsd/fcd_file.xsd">
    <timestep time="0.00">
        <vehicle id="0" x="427.25" y="636.84" angle="68.62" type="DEFAULT_VEHTYPE" speed="0.00" pos="5.10" lane="-126668349_0" slope="0.00"/>
    </timestep>
    <timestep time="1.00">
        <vehicle id="0" x="428.47" y="636.07" angle="64.65" type="DEFAULT_VEHTYPE" speed="1.44" pos="6.54" lane="-126668349_0" slope="0.00"/>
    </timestep>
    <timestep time="2.00">
        <vehicle id="0" x="431.12" y="634.43" angle="58.09" type="DEFAULT_VEHTYPE" speed="3.12" pos="9.66" lane="-126668349_0" slope="0.00"/>
        <vehicle id="2" x="384.80" y="466.35" angle="173.09" type="DEFAULT_VEHTYPE" speed="0.00" pos="5.10" lane="142216962#1_0" slope="0.00"/>
    </timestep>
    <timestep time="3.00">
        <vehicle id="0" x="435.78" y="631.52" angle="58.09" type="DEFAULT_VEHTYPE" speed="5.50" pos="15.16" lane="-126668349_0" slope="0.00"/>
        <vehicle id="2" x="385.04" y="468.30" angle="173.09" type="DEFAULT_VEHTYPE" speed="1.96" pos="7.06" lane="142216962#1_0" slope="0.00"/>
    </timestep>
    <timestep time="4.00">
        <vehicle id="0" x="439.21" y="628.27" angle="47.05" type="DEFAULT_VEHTYPE" speed="4.79" pos="19.95" lane="-126668349_0" slope="0.00"/>
        <vehicle id="2" x="385.58" y="472.77" angle="173.09" type="DEFAULT_VEHTYPE" speed="4.50" pos="11.57" lane="142216962#1_0" slope="0.00"/>
    </timestep>
    <timestep time="5.00">
        <vehicle id="0" x="441.18" y="624.35" angle="27.64" type="DEFAULT_VEHTYPE" speed="4.59" pos="24.54" lane="-126668349_0" slope="0.00"/>
        <vehicle id="2" x="386.21" y="477.97" angle="173.09" type="DEFAULT_VEHTYPE" speed="5.24" pos="16.80" lane="142216962#1_0" slope="0.00"/>
    </timestep>
    <timestep time="6.00">
        <vehicle id="0" x="441.26" y="619.50" angle="0.92" type="DEFAULT_VEHTYPE" speed="4.85" pos="29.40" lane="-126668349_0" slope="0.00"/>
        <vehicle id="2" x="386.76" y="482.53" angle="173.09" type="DEFAULT_VEHTYPE" speed="4.59" pos="21.40" lane="142216962#1_0" slope="0.00"/>
    </timestep>
    <timestep time="7.00">
        <vehicle id="0" x="440.86" y="613.97" angle="-4.73" type="DEFAULT_VEHTYPE" speed="5.55" pos="34.95" lane="-126668349_0" slope="0.00"/>
        <vehicle id="2" x="387.33" y="487.18" angle="173.09" type="DEFAULT_VEHTYPE" speed="4.69" pos="26.08" lane="142216962#1_0" slope="0.00"/>
        <vehicle id="7" x="380.70" y="736.24" angle="72.28" type="DEFAULT_VEHTYPE" speed="0.00" pos="5.10" lane="126668377#0_0" slope="0.00"/>
    </timestep>
    <timestep time="8.00">
        <vehicle id="0" x="440.35" y="609.05" angle="-5.87" type="DEFAULT_VEHTYPE" speed="4.95" pos="39.90" lane="-126668349_0" slope="0.00"/>
        <vehicle id="2" x="387.92" y="492.12" angle="173.09" type="DEFAULT_VEHTYPE" speed="4.97" pos="31.05" lane="142216962#1_0" slope="0.00"/>
        <vehicle id="7" x="382.47" y="735.67" angle="72.28" type="DEFAULT_VEHTYPE" speed="1.86" pos="6.96" lane="126668377#0_0" slope="0.00"/>
        <vehicle id="8" x="0.27" y="1248.58" angle="20.78" type="DEFAULT_VEHTYPE" speed="0.00" pos="5.10" lane="-40046722#2_0" slope="0.00"/>
    </timestep>
    <timestep time="9.00">
        <vehicle id="0" x="436.73" y="605.30" angle="-44.04" type="DEFAULT_VEHTYPE" speed="5.22" pos="45.12" lane="-126668349_0" slope="0.00"/>
        <vehicle id="2" x="388.58" y="497.56" angle="173.09" type="DEFAULT_VEHTYPE" speed="5.48" pos="36.53" lane="142216962#1_0" slope="0.00"/>
        <vehicle id="7" x="384.04" y="735.17" angle="72.28" type="DEFAULT_VEHTYPE" speed="1.64" pos="8.61" lane="126668377#0_0" slope="0.00"/>
        <vehicle id="8" x="1.04" y="1246.54" angle="20.78" type="DEFAULT_VEHTYPE" speed="2.18" pos="7.28" lane="-40046722#2_0" slope="0.00"/>
        <vehicle id="9" x="405.43" y="595.71" angle="-14.46" type="DEFAULT_VEHTYPE" speed="0.00" pos="5.10" lane="-40046722#0_0" slope="0.00"/>
    </timestep>
    <timestep time="10.00">
        <vehicle id="0" x="432.65" y="604.13" angle="-71.86" type="DEFAULT_VEHTYPE" speed="4.67" pos="49.79" lane="-126668349_0" slope="0.00"/>
        <vehicle id="10" x="384.80" y="466.35" angle="173.09" type="DEFAULT_VEHTYPE" speed="0.00" pos="5.10" lane="142216962#1_0" slope="0.00"/>
        <vehicle id="2" x="389.24" y="503.02" angle="173.09" type="DEFAULT_VEHTYPE" speed="5.50" pos="42.03" lane="142216962#1_0" slope="0.00"/>
        <vehicle id="7" x="386.05" y="734.53" angle="72.28" type="DEFAULT_VEHTYPE" speed="2.11" pos="10.72" lane="126668377#0_0" slope="0.00"/>
        <vehicle id="8" x="2.60" y="1242.45" angle="20.78" type="DEFAULT_VEHTYPE" speed="4.38" pos="11.66" lane="-40046722#2_0" slope="0.00"/>
        <vehicle id="9" x="404.98" y="593.99" angle="-14.46" type="DEFAULT_VEHTYPE" speed="1.78" pos="6.88" lane="-40046722#0_0" slope="0.00"/>
    </timestep>
    <timestep time="11.00">
        <vehicle id="0" x="428.33" y="604.47" angle="-94.58" type="DEFAULT_VEHTYPE" speed="4.34" pos="54.13" lane="-126668349_0" slope="0.00"/>
        <vehicle id="10" x="384.98" y="467.79" angle="173.09" type="DEFAULT_VEHTYPE" speed="1.45" pos="6.55" lane="142216962#1_0" slope="0.00"/>
        <vehicle id="2" x="389.78" y="507.48" angle="173.09" type="DEFAULT_VEHTYPE" speed="4.49" pos="46.52" lane="142216962#1_0" slope="0.00"/>
        <vehicle id="7" x="388.21" y="733.84" angle="72.28" type="DEFAULT_VEHTYPE" speed="2.26" pos="12.98" lane="126668377#0_0" slope="0.00"/>
        <vehicle id="8" x="4.83" y="1236.58" angle="20.81" type="DEFAULT_VEHTYPE" speed="6.27" pos="17.94" lane="-40046722#2_0" slope="0.00"/>
        <vehicle id="9" x="403.97" y="590.05" angle="-14.46" type="DEFAULT_VEHTYPE" speed="4.07" pos="10.95" lane="-40046722#0_0" slope="0.00"/>
    </timestep>
    <timestep time="12.00">
        <vehicle id="0" x="422.83" y="604.91" angle="-94.58" type="DEFAULT_VEHTYPE" speed="5.52" pos="59.65" lane="-126668349_0" slope="0.00"/>
        <vehicle id="10" x="385.34" y="470.82" angle="173.09" type="DEFAULT_VEHTYPE" speed="3.05" pos="9.60" lane="142216962#1_0" slope="0.00"/>
        <vehicle id="12" x="239.33" y="343.85" angle="73.94" type="DEFAULT_VEHTYPE" speed="0.00" pos="5.10" lane="142216962#0_0" slope="0.00"/>
        <vehicle id="2" x="390.41" y="512.61" angle="173.09" type="DEFAULT_VEHTYPE" speed="5.17" pos="51.69" lane="142216962#1_0" slope="0.00"/>
        <vehicle id="7" x="390.66" y="733.06" angle="72.28" type="DEFAULT_VEHTYPE" speed="2.57" pos="15.56" lane="126668377#0_0" slope="0.00"/>
        <vehicle id="8" x="7.54" y="1229.45" angle="20.83" type="DEFAULT_VEHTYPE" speed="7.63" pos="25.57" lane="-40046722#2_0" slope="0.00"/>
        <vehicle id="9" x="402.31" y="583.63" angle="-14.46" type="DEFAULT_VEHTYPE" speed="6.63" pos="17.58" lane="-40046722#0_0" slope="0.00"/>
    </timestep>
    <timestep time="13.00">
        <vehicle id="0" x="418.17" y="605.29" angle="-94.58" type="DEFAULT_VEHTYPE" speed="4.67" pos="64.32" lane="-126668349_0" slope="0.00"/>
        <vehicle id="10" x="385.99" y="476.17" angle="173.09" type="DEFAULT_VEHTYPE" speed="5.39" pos="14.99" lane="142216962#1_0" slope="0.00"/>
        <vehicle id="12" x="241.50" y="343.22" angle="73.89" type="DEFAULT_VEHTYPE" speed="2.26" pos="7.36" lane="142216962#0_0" slope="0.00"/>
        <vehicle id="2" x="391.02" y="517.71" angle="173.09" type="DEFAULT_VEHTYPE" speed="5.13" pos="56.82" lane="142216962#1_0" slope="0.00"/>
        <vehicle id="7" x="393.15" y="732.26" angle="72.28" type="DEFAULT_VEHTYPE" speed="2.62" pos="18.17" lane="126668377#0_0" slope="0.00"/>
        <vehicle id="8" x="10.99" y="1220.38" angle="20.83" type="DEFAULT_VEHTYPE" speed="9.70" pos="35.27" lane="-40046722#2_0" slope="0.00"/>
        <vehicle id="9" x="400.32" y="575.91" angle="-14.46" type="DEFAULT_VEHTYPE" speed="7.98" pos="25.55" lane="-40046722#0_0" slope="0.00"/>
    </timestep>
    <timestep time="14.00">
        <vehicle id="0" x="412.92" y="605.49" angle="-92.11" type="DEFAULT_VEHTYPE" speed="5.27" pos="1.85" lane=":1557328310_4_0" slope="0.00"/>
        <vehicle id="10" x="386.57" y="480.96" angle="173.09" type="DEFAULT_VEHTYPE" speed="4.82" pos="19.81" lane="142216962#1_0" slope="0.00"/>
        <vehicle id="12" x="245.33" y="342.11" angle="73.82" type="DEFAULT_VEHTYPE" speed="3.99" pos="11.34" lane="142216962#0_0" slope="0.00"/>
        <vehicle id="2" x="391.66" y="523.01" angle="173.09" type="DEFAULT_VEHTYPE" speed="5.34" pos="62.16" lane="142216962#1_0" slope="0.00"/>
        <vehicle id="7" x="395.50" y="731.51" angle="72.28" type="DEFAULT_VEHTYPE" speed="2.47" pos="20.64" lane="126668377#0_0" slope="0.00"/>
        <vehicle id="8" x="14.99" y="1209.88" angle="20.83" type="DEFAULT_VEHTYPE" speed="11.24" pos="46.51" lane="-40046722#2_0" slope="0.00"/>
        <vehicle id="9" x="397.70" y="565.78" angle="-14.46" type="DEFAULT_VEHTYPE" speed="10.46" pos="36.01" lane="-40046722#0_0" slope="0.00"/>
    </timestep>
    <timestep time="15.00">
        <vehicle id="0" x="407.23" y="601.84" angle="-47.47" type="DEFAULT_VEHTYPE" speed="7.23" pos="9.08" lane=":1557328310_4_0" slope="0.00"/>
        <vehicle id="10" x="387.15" y="485.71" angle="173.09" type="DEFAULT_VEHTYPE" speed="4.78" pos="24.59" lane="142216962#1_0" slope="0.00"/>
        <vehicle id="12" x="250.28" y="340.67" angle="73.82" type="DEFAULT_VEHTYPE" speed="5.16" pos="16.50" lane="142216962#0_0" slope="0.00"/>
        <vehicle id="13" x="239.33" y="343.85" angle="73.94" type="DEFAULT_VEHTYPE" speed="0.00" pos="5.10" lane="142216962#0_0" slope="0.00"/>
        <vehicle id="2" x="392.22" y="527.61" angle="173.09" type="DEFAULT_VEHTYPE" speed="4.63" pos="66.79" lane="142216962#1_0" slope="0.00"/>
        <vehicle id="7" x="397.29" y="730.94" angle="72.28" type="DEFAULT_VEHTYPE" speed="1.88" pos="22.52" lane="126668377#0_0" slope="0.00"/>
        <vehicle id="8" x="19.48" y="1198.08" angle="20.83" type="DEFAULT_VEHTYPE" speed="12.63" pos="59.13" lane="-40046722#2_0" slope="0.00"/>
        <vehicle id="9" x="394.75" y="554.34" angle="-14.46" type="DEFAULT_VEHTYPE" speed="11.81" pos="47.82" lane="-40046722#0_0" slope="0.00"/>
    </timestep>
    <timestep time="16.00">
        <vehicle id="0" x="404.69" y="592.85" angle="-14.46" type="DEFAULT_VEHTYPE" speed="9.36" pos="8.05" lane="-40046722#0_0" slope="0.00"/>
        <vehicle id="10" x="387.79" y="491.01" angle="173.09" type="DEFAULT_VEHTYPE" speed="5.34" pos="29.93" lane="142216962#1_0" slope="0.00"/>
        <vehicle id="12" x="255.43" y="339.18" angle="73.82" type="DEFAULT_VEHTYPE" speed="5.36" pos="21.87" lane="142216962#0_0" slope="0.00"/>
        <vehicle id="13" x="241.79" y="343.14" angle="73.88" type="DEFAULT_VEHTYPE" speed="2.56" pos="7.66" lane="142216962#0_0" slope="0.00"/>
        <vehicle id="2" x="390.72" y="531.38" angle="-159.59" type="DEFAULT_VEHTYPE" speed="4.81" pos="0.33" lane=":1558352448_16_0" slope="0.00"/>
        <vehicle id="7" x="398.76" y="730.47" angle="72.28" type="DEFAULT_VEHTYPE" speed="1.54" pos="24.06" lane="126668377#0_0" slope="0.00"/>
        <vehicle id="8" x="24.33" y="1185.32" angle="20.83" type="DEFAULT_VEHTYPE" speed="13.65" pos="72.78" lane="-40046722#2_0" slope="0.00"/>
        <vehicle id="9" x="392.40" y="545.22" angle="-14.46" type="DEFAULT_VEHTYPE" speed="9.42" pos="57.24" lane="-40046722#0_0" slope="0.00"/>
    </timestep>
    <timestep time="17.00">
        <vehicle id="0" x="402.02" y="582.52" angle="-14.46" type="DEFAULT_VEHTYPE" speed="10.67" pos="18.72" lane="-40046722#0_0" slope="0.00"/>
        <vehicle id="10" x="388.37" y="495.82" angle="173.09" type="DEFAULT_VEHTYPE" speed="4.85" pos="34.78" lane="142216962#1_0" slope="0.00"/>
        <vehicle id="12" x="260.38" y="337.74" angle="73.82" type="DEFAULT_VEHTYPE" speed="5.15" pos="27.02" lane="142216962#0_0" slope="0.00"/>
        <vehicle id="13" x="246.33" y="341.82" angle="73.82" type="DEFAULT_VEHTYPE" speed="4.72" pos="12.39" lane="142216962#0_0" slope="0.00"/>
        <vehicle id="2" x="388.79" y="526.71" angle="-18.51" type="DEFAULT_VEHTYPE" speed="5.45" pos="3.37" lane="-142216962#1_0" slope="0.00"/>
        <vehicle id="7" x="400.26" y="729.99" angle="72.28" type="DEFAULT_VEHTYPE" speed="1.57" pos="25.63" lane="126668377#0_0" slope="0.00"/>
        <vehicle id="8" x="29.24" y="1172.42" angle="20.83" type="DEFAULT_VEHTYPE" speed="13.80" pos="86.59" lane="-40046722#2_0" slope="0.00"/>
        <vehicle id="9" x="391.25" y="539.48" angle="-10.76" type="DEFAULT_VEHTYPE" speed="5.94" pos="0.57" lane=":1558352448_3_0" slope="0.00"/>
    </timestep>
    <timestep time="18.00">
        <vehicle id="0" x="398.72" y="569.73" angle="-14.46" type="DEFAULT_VEHTYPE" speed="13.21" pos="31.93" lane="-40046722#0_0" slope="0.00"/>
        <vehicle id="10" x="388.95" y="500.61" angle="173.09" type="DEFAULT_VEHTYPE" speed="4.82" pos="39.60" lane="142216962#1_0" slope="0.00"/>
        <vehicle id="12" x="265.62" y="336.22" angle="73.82" type="DEFAULT_VEHTYPE" speed="5.46" pos="32.48" lane="142216962#0_0" slope="0.00"/>
        <vehicle id="13" x="250.77" y="340.53" angle="73.82" type="DEFAULT_VEHTYPE" speed="4.62" pos="17.01" lane="142216962#0_0" slope="0.00"/>
        <vehicle id="2" x="388.16" y="521.56" angle="-6.91" type="DEFAULT_VEHTYPE" speed="5.18" pos="8.55" lane="-142216962#1_0" slope="0.00"/>
        <vehicle id="7" x="402.65" y="729.22" angle="72.28" type="DEFAULT_VEHTYPE" speed="2.51" pos="28.14" lane="126668377#0_0" slope="0.00"/>
        <vehicle id="8" x="34.10" y="1159.66" angle="20.83" type="DEFAULT_VEHTYPE" speed="13.66" pos="100.24" lane="-40046722#2_0" slope="0.00"/>
        <vehicle id="9" x="395.22" y="542.90" angle="157.85" type="DEFAULT_VEHTYPE" speed="8.08" pos="3.84" lane="40046722#0_0" slope="0.00"/>
    </timestep>
    <timestep time="19.00">
        <vehicle id="0" x="395.45" y="557.06" angle="-14.46" type="DEFAULT_VEHTYPE" speed="13.09" pos="45.02" lane="-40046722#0_0" slope="0.00"/>
        <vehicle id="10" x="389.59" y="505.86" angle="173.09" type="DEFAULT_VEHTYPE" speed="5.28" pos="44.89" lane="142216962#1_0" slope="0.00"/>
        <vehicle id="12" x="270.48" y="334.81" angle="73.82" type="DEFAULT_VEHTYPE" speed="5.05" pos="37.53" lane="142216962#0_0" slope="0.00"/>
        <vehicle id="13" x="255.47" y="339.17" angle="73.82" type="DEFAULT_VEHTYPE" speed="4.89" pos="21.90" lane="142216962#0_0" slope="0.00"/>
        <vehicle id="19" x="413.36" y="614.06" angle="166.65" type="DEFAULT_VEHTYPE" speed="0.00" pos="5.10" lane="40046722#1_0" slope="0.00"/>
        <vehicle id="2" x="387.62" y="517.11" angle="-6.91" type="DEFAULT_VEHTYPE" speed="4.49" pos="13.03" lane="-142216962#1_0" slope="0.00"/>
        <vehicle id="7" x="404.46" y="728.65" angle="72.28" type="DEFAULT_VEHTYPE" speed="1.90" pos="30.04" lane="126668377#0_0" slope="0.00"/>
        <vehicle id="8" x="38.84" y="1147.19" angle="20.83" type="DEFAULT_VEHTYPE" speed="13.34" pos="113.58" lane="-40046722#2_0" slope="0.00"/>
        <vehicle id="9" x="397.70" y="552.51" angle="165.54" type="DEFAULT_VEHTYPE" speed="9.92" pos="13.76" lane="40046722#0_0" slope="0.00"/>
    </timestep>
    <timestep time="20.00">
        <vehicle id="0" x="392.41" y="545.25" angle="-14.46" type="DEFAULT_VEHTYPE" speed="12.20" pos="57.21" lane="-40046722#0_0" slope="0.00"/>
        <vehicle id="10" x="390.19" y="510.84" angle="173.09" type="DEFAULT_VEHTYPE" speed="5.02" pos="49.91" lane="142216962#1_0" slope="0.00"/>
        <vehicle id="12" x="275.44" y="333.37" angle="73.82" type="DEFAULT_VEHTYPE" speed="5.17" pos="42.70" lane="142216962#0_0" slope="0.00"/>
        <vehicle id="13" x="260.68" y="337.66" angle="73.82" type="DEFAULT_VEHTYPE" speed="5.42" pos="27.33" lane="142216962#0_0" slope="0.00"/>
        <vehicle id="19" x="413.68" y="615.42" angle="166.65" type="DEFAULT_VEHTYPE" speed="1.40" pos="6.50" lane="40046722#1_0" slope="0.00"/>
        <vehicle id="2" x="387.09" y="512.72" angle="-6.91" type="DEFAULT_VEHTYPE" speed="4.42" pos="17.46" lane="-142216962#1_0" slope="0.00"/>
        <vehicle id="7" x="406.65" y="727.95" angle="72.28" type="DEFAULT_VEHTYPE" speed="2.31" pos="32.35" lane="126668377#0_0" slope="0.00"/>
        <vehicle id="8" x="43.33" y="1135.39" angle="20.83" type="DEFAULT_VEHTYPE" speed="12.62" pos="126.20" lane="-40046722#2_0" slope="0.00"/>
        <vehicle id="9" x="400.62" y="563.85" angle="165.54" type="DEFAULT_VEHTYPE" speed="11.71" pos="25.47" lane="40046722#0_0" slope="0.00"/>
    </timestep>
    <timestep time="21.00">
        <vehicle id="0" x="390.82" y="537.73" angle="-10.62" type="DEFAULT_VEHTYPE" speed="7.70" pos="2.30" lane=":1558352448_2_0" slope="0.00"/>
        <vehicle id="10" x="390.78" y="515.73" angle="173.09" type="DEFAULT_VEHTYPE" speed="4.92" pos="54.83" lane="142216962#1_0" slope="0.00"/>
        <vehicle id="12" x="279.69" y="332.14" angle="73.82" type="DEFAULT_VEHTYPE" speed="4.42" pos="47.12" lane="142216962#0_0" slope="0.00"/>
        <vehicle id="13" x="265.30" y="336.31" angle="73.82" type="DEFAULT_VEHTYPE" speed="4.81" pos="32.14" lane="142216962#0_0" slope="0.00"/>
        <vehicle id="15" x="388.58" y="524.99" angle="-6.91" type="DEFAULT_VEHTYPE" speed="0.00" pos="5.10" lane="-142216962#1_0" slope="0.00"/>
        <vehicle id="19" x="414.48" y="618.79" angle="166.65" type="DEFAULT_VEHTYPE" speed="3.46" pos="9.96" lane="40046722#1_0" slope="0.00"/>
        <vehicle id="2" x="386.57" y="508.45" angle="-6.91" type="DEFAULT_VEHTYPE" speed="4.30" pos="21.75" lane="-142216962#1_0" slope="0.00"/>
        <vehicle id="7" x="408.76" y="727.23" angle="71.88" type="DEFAULT_VEHTYPE" speed="2.23" pos="34.57" lane="126668377#0_0" slope="0.00"/>
        <vehicle id="8" x="47.85" y="1123.24" angle="20.10" type="DEFAULT_VEHTYPE" speed="12.97" pos="139.17" lane="-40046722#2_0" slope="0.00"/>
        <vehicle id="9" x="404.00" y="576.93" angle="165.54" type="DEFAULT_VEHTYPE" speed="13.50" pos="38.97" lane="40046722#0_0" slope="0.00"/>
    </timestep>
    <timestep time="22.00">
        <vehicle id="0" x="397.02" y="532.02" angle="67.30" type="DEFAULT_VEHTYPE" speed="9.37" pos="1.01" lane="142399226_0" slope="0.00"/>
        <vehicle id="10" x="391.40" y="520.80" angle="173.09" type="DEFAULT_VEHTYPE" speed="5.11" pos="59.94" lane="142216962#1_0" slope="0.00"/>
        <vehicle id="12" x="284.44" y="330.76" angle="73.82" type="DEFAULT_VEHTYPE" speed="4.95" pos="52.07" lane="142216962#0_0" slope="0.00"/>
        <vehicle id="13" x="269.81" y="335.00" angle="73.82" type="DEFAULT_VEHTYPE" speed="4.70" pos="36.84" lane="142216962#0_0" slope="0.00"/>
        <vehicle id="15" x="388.31" y="522.77" angle="-6.91" type="DEFAULT_VEHTYPE" speed="2.23" pos="7.33" lane="-142216962#1_0" slope="0.00"/>
        <vehicle id="19" x="415.84" y="624.53" angle="166.65" type="DEFAULT_VEHTYPE" speed="5.90" pos="15.86" lane="40046722#1_0" slope="0.00"/>
        <vehicle id="2" x="386.03" y="503.94" angle="-6.91" type="DEFAULT_VEHTYPE" speed="4.54" pos="26.30" lane="-142216962#1_0" slope="0.00"/>
        <vehicle id="7" x="409.76" y="725.75" angle="58.09" type="DEFAULT_VEHTYPE" speed="1.87" pos="36.44" lane="126668377#0_0" slope="0.00"/>
        <vehicle id="8" x="52.57" y="1110.32" angle="20.10" type="DEFAULT_VEHTYPE" speed="13.76" pos="152.93" lane="-40046722#2_0" slope="0.00"/>
        <vehicle id="9" x="407.23" y="589.48" angle="165.54" type="DEFAULT_VEHTYPE" speed="12.96" pos="51.94" lane="40046722#0_0" slope="0.00"/>
    </timestep>
    <timestep time="23.00">
        <vehicle id="0" x="408.54" y="529.63" angle="78.33" type="DEFAULT_VEHTYPE" speed="11.77" pos="12.78" lane="142399226_0" slope="0.00"/>
        <vehicle id="10" x="392.04" y="526.14" angle="173.09" type="DEFAULT_VEHTYPE" speed="5.38" pos="65.32" lane="142216962#1_0" slope="0.00"/>
        <vehicle id="12" x="289.19" y="329.38" angle="73.82" type="DEFAULT_VEHTYPE" speed="4.94" pos="57.01" lane="142216962#0_0" slope="0.00"/>
        <vehicle id="13" x="275.10" y="333.47" angle="73.82" type="DEFAULT_VEHTYPE" speed="5.50" pos="42.34" lane="142216962#0_0" slope="0.00"/>
        <vehicle id="15" x="387.83" y="518.84" angle="-6.91" type="DEFAULT_VEHTYPE" speed="3.96" pos="11.29" lane="-142216962#1_0" slope="0.00"/>
        <vehicle id="19" x="417.55" y="631.73" angle="166.65" type="DEFAULT_VEHTYPE" speed="7.40" pos="23.26" lane="40046722#1_0" slope="0.00"/>
        <vehicle id="2" x="385.42" y="498.93" angle="-6.91" type="DEFAULT_VEHTYPE" speed="5.05" pos="31.35" lane="-142216962#1_0" slope="0.00"/>
        <vehicle id="7" x="410.50" y="724.29" angle="42.58" type="DEFAULT_VEHTYPE" speed="1.63" pos="38.08" lane="126668377#0_0" slope="0.00"/>
        <vehicle id="8" x="57.18" y="1097.73" angle="20.10" type="DEFAULT_VEHTYPE" speed="13.41" pos="166.33" lane="-40046722#2_0" slope="0.00"/>
        <vehicle id="9" x="410.36" y="601.71" angle="165.79" type="DEFAULT_VEHTYPE" speed="12.62" pos="1.94" lane=":1557328310_7_0" slope="0.00"/>
    </timestep>
    <timestep time="24.00">
        <vehicle id="0" x="421.86" y="526.88" angle="78.33" type="DEFAULT_VEHTYPE" speed="13.60" pos="26.38" lane="142399226_0" slope="0.00"/>
        <vehicle id="10" x="392.26" y="530.07" angle="176.05" type="DEFAULT_VEHTYPE" speed="4.00" pos="0.46" lane=":1558352448_11_0" slope="0.00"/>
        <vehicle id="12" x="293.99" y="327.99" angle="73.82" type="DEFAULT_VEHTYPE" speed="5.00" pos="62.01" lane="142216962#0_0" slope="0.00"/>
        <vehicle id="13" x="279.71" y="332.13" angle="73.82" type="DEFAULT_VEHTYPE" speed="4.79" pos="47.14" lane="142216962#0_0" slope="0.00"/>
        <vehicle id="15" x="387.22" y="513.81" angle="-6.91" type="DEFAULT_VEHTYPE" speed="5.07" pos="16.36" lane="-142216962#1_0" slope="0.00"/>
        <vehicle id="19" x="418.67" y="636.58" angle="166.98" type="DEFAULT_VEHTYPE" speed="4.99" pos="0.05" lane=":1557328327_8_0" slope="0.00"/>
        <vehicle id="2" x="384.80" y="493.77" angle="-6.91" type="DEFAULT_VEHTYPE" speed="5.20" pos="36.55" lane="-142216962#1_0" slope="0.00"/>
        <vehicle id="24" x="0.27" y="1248.58" angle="20.78" type="DEFAULT_VEHTYPE" speed="0.00" pos="5.10" lane="-40046722#2_0" slope="0.00"/>
        <vehicle id="7" x="411.54" y="722.20" angle="26.65" type="DEFAULT_VEHTYPE" speed="2.33" pos="40.41" lane="126668377#0_0" slope="0.00"/>
        <vehicle id="8" x="62.04" y="1085.64" angle="22.18" type="DEFAULT_VEHTYPE" speed="13.03" pos="179.36" lane="-40046722#2_0" slope="0.00"/>
        <vehicle id="9" x="413.31" y="613.87" angle="166.64" type="DEFAULT_VEHTYPE" speed="12.51" pos="4.91" lane="40046722#1_0" slope="0.00"/>
    </timestep>
    <timestep time="25.00">
        <vehicle id="0" x="436.48" y="523.86" angle="78.33" type="DEFAULT_VEHTYPE" speed="14.92" pos="41.30" lane="142399226_0" slope="0.00"/>
        <vehicle id="10" x="389.18" y="530.01" angle="-98.38" type="DEFAULT_VEHTYPE" speed="4.41" pos="0.04" lane="-142216962#1_0" slope="0.00"/>
        <vehicle id="12" x="298.30" y="326.74" angle="73.82" type="DEFAULT_VEHTYPE" speed="4.49" pos="66.50" lane="142216962#0_0" slope="0.00"/>
        <vehicle id="13" x="283.87" y="330.93" angle="73.82" type="DEFAULT_VEHTYPE" speed="4.33" pos="51.47" lane="142216962#0_0" slope="0.00"/>
        <vehicle id="15" x="386.56" y="508.31" angle="-6.91" type="DEFAULT_VEHTYPE" speed="5.54" pos="21.90" lane="-142216962#1_0" slope="0.00"/>
        <vehicle id="19" x="414.97" y="635.17" angle="-42.14" type="DEFAULT_VEHTYPE" speed="6.96" pos="2.19" lane="-40046722#1_0" slope="0.00"/>
        <vehicle id="2" x="384.21" y="488.95" angle="-6.91" type="DEFAULT_VEHTYPE" speed="4.85" pos="41.40" lane="-142216962#1_0" slope="0.00"/>
        <vehicle id="24" x="0.90" y="1246.93" angle="20.78" type="DEFAULT_VEHTYPE" speed="1.77" pos="6.87" lane="-40046722#2_0" slope="0.00"/>
        <vehicle id="25" x="247.91" y="627.69" angle="-59.11" type="DEFAULT_VEHTYPE" speed="0.00" pos="5.10" lane="142399229#1_0" slope="0.00"/>
        <vehicle id="7" x="412.73" y="719.84" angle="26.65" type="DEFAULT_VEHTYPE" speed="2.65" pos="43.06" lane="126668377#0_0" slope="0.00"/>
        <vehicle id="8" x="66.76" y="1073.77" angle="20.96" type="DEFAULT_VEHTYPE" speed="12.78" pos="192.14" lane="-40046722#2_0" slope="0.00"/>
        <vehicle id="9" x="415.34" y="622.40" angle="166.65" type="DEFAULT_VEHTYPE" speed="8.77" pos="13.68" lane="40046722#1_0" slope="0.00"/>
    </timestep>
    <timestep time="26.00">
        <vehicle id="0" x="453.62" y="520.32" angle="78.33" type="DEFAULT_VEHTYPE" speed="17.51" pos="58.81" lane="142399226_0" slope="0.00"/>
        <vehicle id="10" x="388.66" y="525.67" angle="-10.74" type="DEFAULT_VEHTYPE" speed="4.37" pos="4.41" lane="-142216962#1_0" slope="0.00"/>
        <vehicle id="12" x="303.05" y="325.36" angle="73.82" type="DEFAULT_VEHTYPE" speed="4.95" pos="71.45" lane="142216962#0_0" slope="0.00"/>
        <vehicle id="13" x="288.78" y="329.50" angle="73.82" type="DEFAULT_VEHTYPE" speed="5.12" pos="56.59" lane="142216962#0_0" slope="0.00"/>
        <vehicle id="15" x="385.99" y="503.64" angle="-6.91" type="DEFAULT_VEHTYPE" speed="4.70" pos="26.60" lane="-142216962#1_0" slope="0.00"/>
        <vehicle id="19" x="413.04" y="627.02" angle="-13.35" type="DEFAULT_VEHTYPE" speed="8.38" pos="10.57" lane="-40046722#1_0" slope="0.00"/>
        <vehicle id="2" x="383.54" y="483.44" angle="-6.91" type="DEFAULT_VEHTYPE" speed="5.56" pos="46.95" lane="-142216962#1_0" slope="0.00"/>
        <vehicle id="24" x="2.08" y="1243.82" angle="20.78" type="DEFAULT_VEHTYPE" speed="3.33" pos="10.20" lane="-40046722#2_0" slope="0.00"/>
        <vehicle id="25" x="246.14" y="626.63" angle="-59.11" type="DEFAULT_VEHTYPE" speed="2.06" pos="7.16" lane="142399229#1_0" slope="0.00"/>
        <vehicle id="7" x="413.60" y="717.44" angle="23.22" type="DEFAULT_VEHTYPE" speed="2.56" pos="45.62" lane="126668377#0_0" slope="0.00"/>
        <vehicle id="8" x="71.54" y="1061.21" angle="20.83" type="DEFAULT_VEHTYPE" speed="13.44" pos="205.58" lane="-40046722#2_0" slope="0.00"/>
        <vehicle id="9" x="417.82" y="632.85" angle="166.65" type="DEFAULT_VEHTYPE" speed="10.74" pos="24.41" lane="40046722#1_0" slope="0.00"/>
    </timestep>
    <timestep time="27.00">
        <vehicle id="0" x="472.73" y="516.37" angle="78.33" type="DEFAULT_VEHTYPE" speed="19.51" pos="78.32" lane="142399226_0" slope="0.00"/>
        <vehicle id="10" x="388.11" y="521.16" angle="-6.91" type="DEFAULT_VEHTYPE" speed="4.54" pos="8.95" lane="-142216962#1_0" slope="0.00"/>
        <vehicle id="12" x="307.90" y="323.95" angle="73.82" type="DEFAULT_VEHTYPE" speed="5.05" pos="76.50" lane="142216962#0_0" slope="0.00"/>
        <vehicle id="13" x="292.88" y="328.31" angle="73.82" type="DEFAULT_VEHTYPE" speed="4.26" pos="60.85" lane="142216962#0_0" slope="0.00"/>
        <vehicle id="15" x="385.47" y="499.33" angle="-6.91" type="DEFAULT_VEHTYPE" speed="4.34" pos="30.95" lane="-142216962#1_0" slope="0.00"/>
        <vehicle id="19" x="410.61" y="616.76" angle="-13.35" type="DEFAULT_VEHTYPE" speed="10.54" pos="21.11" lane="-40046722#1_0" slope="0.00"/>
        <vehicle id="2" x="382.95" y="478.55" angle="-6.91" type="DEFAULT_VEHTYPE" speed="4.93" pos="51.88" lane="-142216962#1_0" slope="0.00"/>
        <vehicle id="24" x="3.80" y="1239.27" angle="20.78" type="DEFAULT_VEHTYPE" speed="4.86" pos="15.06" lane="-40046722#2_0" slope="0.00"/>
        <vehicle id="25" x="243.99" y="625.34" angle="-59.11" type="DEFAULT_VEHTYPE" speed="2.51" pos="9.67" lane="142399229#1_0" slope="0.00"/>
        <vehicle id="7" x="414.36" y="714.92" angle="18.00" type="DEFAULT_VEHTYPE" speed="2.63" pos="48.25" lane="126668377#0_0" slope="0.00"/>
        <vehicle id="8" x="77.12" y="1049.86" angle="34.59" type="DEFAULT_VEHTYPE" speed="12.78" pos="218.36" lane="-40046722#2_0" slope="0.00"/>
        <vehicle id="9" x="420.64" y="644.76" angle="166.65" type="DEFAULT_VEHTYPE" speed="12.24" pos="8.45" lane=":1557328327_7_0" slope="0.00"/>
    </timestep>
    <timestep time="28.00">
        <vehicle id="0" x="493.64" y="512.05" angle="78.33" type="DEFAULT_VEHTYPE" speed="21.35" pos="99.67" lane="142399226_0" slope="0.00"/>
        <vehicle id="10" x="387.47" y="515.85" angle="-6.91" type="DEFAULT_VEHTYPE" speed="5.36" pos="14.31" lane="-142216962#1_0" slope="0.00"/>
        <vehicle id="12" x="312.47" y="323.47" angle="83.19" type="DEFAULT_VEHTYPE" speed="4.62" pos="81.12" lane="142216962#0_0" slope="0.00"/>
        <vehicle id="13" x="297.66" y="326.92" angle="73.82" type="DEFAULT_VEHTYPE" speed="4.98" pos="65.84" lane="142216962#0_0" slope="0.00"/>
        <vehicle id="15" x="384.93" y="494.84" angle="-6.91" type="DEFAULT_VEHTYPE" speed="4.52" pos="35.46" lane="-142216962#1_0" slope="0.00"/>
        <vehicle id="19" x="407.56" y="604.14" angle="-13.85" type="DEFAULT_VEHTYPE" speed="12.98" pos="5.89" lane=":1557328310_0_0" slope="0.00"/>
        <vehicle id="2" x="382.34" y="473.50" angle="-6.91" type="DEFAULT_VEHTYPE" speed="5.08" pos="56.96" lane="-142216962#1_0" slope="0.00"/>
        <vehicle id="24" x="6.31" y="1232.69" angle="20.83" type="DEFAULT_VEHTYPE" speed="7.04" pos="22.10" lane="-40046722#2_0" slope="0.00"/>
        <vehicle id="25" x="242.48" y="624.44" angle="-59.11" type="DEFAULT_VEHTYPE" speed="1.75" pos="11.43" lane="142399229#1_0" slope="0.00"/>